 vasp.5.4.1 24Jun15 (build Jan 27 2018 19:19:34) complex                        
  
 executed on           IFC91_ompi date 2018.02.07  22:51:33
 running on    4 total cores
 distrk:  each k-point on    4 cores,    1 groups
 distr:  one band on NCORES_PER_BAND=   1 cores,    4 groups


--------------------------------------------------------------------------------------------------------


 INCAR:
 POTCAR:    PAW_PBE Cl 06Sep2000                  
 POTCAR:    PAW_PBE Co 02Aug2007                  
 POTCAR:    PAW_PBE Cl 06Sep2000                  
   VRHFIN =Cl: s2p5                                                             
   LEXCH  = PE                                                                  
   EATOM  =   409.7259 eV,   30.1140 Ry                                         
                                                                                
   TITEL  = PAW_PBE Cl 06Sep2000                                                
   LULTRA =        F    use ultrasoft PP ?                                      
   IUNSCR =        1    unscreen: 0-lin 1-nonlin 2-no                           
   RPACOR =    1.500    partial core radius                                     
   POMASS =   35.453; ZVAL   =    7.000    mass and valenz                      
   RCORE  =    1.900    outmost cutoff radius                                   
   RWIGS  =    2.100; RWIGS  =    1.111    wigner-seitz radius (au A)           
   ENMAX  =  262.472; ENMIN  =  196.854 eV                                      
   ICORE  =        2    local potential                                         
   LCOR   =        T    correct aug charges                                     
   LPAW   =        T    paw PP                                                  
   EAUG   =  356.192                                                            
   DEXC   =    0.000                                                            
   RMAX   =    1.945    core radius for proj-oper                               
   RAUG   =    1.300    factor for augmentation sphere                          
   RDEP   =    2.020    radius for radial grids                                 
   RDEPT  =    1.678    core radius for aug-charge                              
                                                                                
   Atomic configuration                                                         
    6 entries                                                                   
     n  l   j            E        occ.                                          
     1  0  0.50     -2751.1850   2.0000                                         
     2  0  0.50      -252.6861   2.0000                                         
     2  1  1.50      -191.6157   6.0000                                         
     3  0  0.50       -20.6916   2.0000                                         
     3  1  0.50        -8.5949   5.0000                                         
     3  2  1.50        -8.1635   0.0000                                         
   Description                                                                  
     l       E           TYP  RCUT    TYP  RCUT                                 
     0    -20.6915656     23  1.900                                             
     0    -22.0521482     23  1.900                                             
     1     -8.5948577     23  1.900                                             
     1     -5.3847331     23  1.900                                             
     2     -8.1634956     23  1.900                                             
  local pseudopotential read in
  partial core-charges read in
  partial kinetic energy density read in
  atomic valenz-charges read in
  non local Contribution for L=           0  read in
    real space projection operators read in
  non local Contribution for L=           0  read in
    real space projection operators read in
  non local Contribution for L=           1  read in
    real space projection operators read in
  non local Contribution for L=           1  read in
    real space projection operators read in
    PAW grid and wavefunctions read in
 
   number of l-projection  operators is LMAX  =           4
   number of lm-projection operators is LMMAX =           8
 
 POTCAR:    PAW_PBE Co 02Aug2007                  
   VRHFIN =Co: d8 s1                                                            
   LEXCH  = PE                                                                  
   EATOM  =   813.3670 eV,   59.7808 Ry                                         
                                                                                
   TITEL  = PAW_PBE Co 02Aug2007                                                
   LULTRA =        F    use ultrasoft PP ?                                      
   IUNSCR =        1    unscreen: 0-lin 1-nonlin 2-no                           
   RPACOR =    2.000    partial core radius                                     
   POMASS =   58.933; ZVAL   =    9.000    mass and valenz                      
   RCORE  =    2.300    outmost cutoff radius                                   
   RWIGS  =    2.460; RWIGS  =    1.302    wigner-seitz radius (au A)           
   ENMAX  =  267.968; ENMIN  =  200.976 eV                                      
   RCLOC  =    1.203    cutoff for local pot                                    
   LCOR   =        T    correct aug charges                                     
   LPAW   =        T    paw PP                                                  
   EAUG   =  477.818                                                            
   DEXC   =    0.000                                                            
   RMAX   =    2.360    core radius for proj-oper                               
   RAUG   =    1.300    factor for augmentation sphere                          
   RDEP   =    2.393    radius for radial grids                                 
   RDEPT  =    1.864    core radius for aug-charge                              
                                                                                
   Atomic configuration                                                         
    9 entries                                                                   
     n  l   j            E        occ.                                          
     1  0  0.50     -7587.6674   2.0000                                         
     2  0  0.50      -893.6084   2.0000                                         
     2  1  1.50      -764.5805   6.0000                                         
     3  0  0.50       -97.5973   2.0000                                         
     3  1  1.50       -60.9648   6.0000                                         
     3  2  2.50        -4.2382   8.0000                                         
     4  0  0.50        -4.3746   1.0000                                         
     4  1  1.50        -4.0817   0.0000                                         
     4  3  2.50        -1.3606   0.0000                                         
   Description                                                                  
     l       E           TYP  RCUT    TYP  RCUT                                 
     2     -4.2382362     23  2.300                                             
     2     -5.5988188     23  2.300                                             
     0     -4.3745797     23  2.300                                             
     0      5.7660125     23  2.300                                             
     1     -2.7211652     23  2.300                                             
     1     16.9860234     23  2.300                                             
  local pseudopotential read in
  partial core-charges read in
  partial kinetic energy density read in
  atomic valenz-charges read in
  non local Contribution for L=           2  read in
    real space projection operators read in
  non local Contribution for L=           2  read in
    real space projection operators read in
  non local Contribution for L=           0  read in
    real space projection operators read in
  non local Contribution for L=           0  read in
    real space projection operators read in
  non local Contribution for L=           1  read in
    real space projection operators read in
  non local Contribution for L=           1  read in
    real space projection operators read in
    PAW grid and wavefunctions read in
 
   number of l-projection  operators is LMAX  =           6
   number of lm-projection operators is LMMAX =          18
 
  PAW_PBE Cl 06Sep2000                  :
 energy of atom  1       EATOM= -409.7259
 kinetic energy error for atom=    0.0084 (will be added to EATOM!!)
  PAW_PBE Co 02Aug2007                  :
 energy of atom  2       EATOM= -813.3670
 kinetic energy error for atom=    0.0075 (will be added to EATOM!!)
 
 
 POSCAR: CoCl2_mp-696114_conventional_standard\(0
  positions in direct lattice
  No initial velocities read in
 exchange correlation table for  LEXCH =        8
   RHO(1)=    0.500       N(1)  =     2000
   RHO(2)=  100.500       N(2)  =     4000
 


--------------------------------------------------------------------------------------------------------


 ion  position               nearest neighbor table
   1  0.667  0.333  0.000-   3 2.43   3 2.43   3 2.43
   2  0.333  0.667  0.180-   3 2.43   3 2.43   3 2.43
   3  0.000  0.000  0.090-   1 2.43   2 2.43   2 2.43   1 2.43   2 2.43   1 2.43
 
  LATTYP: Found a hexagonal cell.
 ALAT       =     3.5269000530
 C/A-ratio  =     4.1512091180
  
  Lattice vectors:
  
 A1 = (   3.5269000530,   0.0000000000,   0.0000000000)
 A2 = (  -1.7634500265,   3.0543850425,   0.0000000000)
 A3 = (   0.0000000000,   0.0000000000,  14.6408996582)


Analysis of symmetry for initial positions (statically):
=====================================================================
 Subroutine PRICEL returns:
 Original cell was already a primitive cell.
 

 Routine SETGRP: Setting up the symmetry group for a 
 hexagonal supercell.


 Subroutine GETGRP returns: Found  4 space group operations
 (whereof  2 operations were pure point group operations)
 out of a pool of 24 trial point group operations.


The static configuration has the point symmetry C_1h.
 The point group associated with its full space group is C_2h.


Analysis of symmetry for dynamics (positions and initial velocities):
=====================================================================
 Subroutine PRICEL returns:
 Original cell was already a primitive cell.
 

 Routine SETGRP: Setting up the symmetry group for a 
 hexagonal supercell.


 Subroutine GETGRP returns: Found  4 space group operations
 (whereof  2 operations were pure point group operations)
 out of a pool of 24 trial point group operations.


The dynamic configuration has the point symmetry C_1h.
 The point group associated with its full space group is C_2h.
 
 
 KPOINTS: Auto                                    

Automatic generation of k-mesh.
Space group operators:
 irot       det(A)        alpha          n_x          n_y          n_z        tau_x        tau_y        tau_z
    1     1.000000     0.000000     1.000000     0.000000     0.000000     0.000000     0.000000     0.000000
    2    -1.000000   180.000000    -0.500000    -0.866025     0.000000     0.000000     0.000000     0.000000
    3    -1.000000     0.000000     1.000000     0.000000     0.000000     0.000000     0.000000     0.180380
    4     1.000000   180.000000    -0.500000    -0.866025     0.000000     0.000000     0.000000     0.180380
 
 Subroutine IBZKPT returns following result:
 ===========================================
 
 Found     36 irreducible k-points:
 
 Following reciprocal coordinates:
            Coordinates               Weight
  0.000000  0.000000  0.000000      1.000000
  0.090909  0.000000  0.000000      4.000000
  0.181818  0.000000  0.000000      4.000000
  0.272727  0.000000  0.000000      4.000000
  0.363636  0.000000  0.000000      4.000000
  0.454545  0.000000  0.000000      4.000000
  0.090909  0.090909  0.000000      2.000000
  0.181818  0.090909  0.000000      4.000000
  0.272727  0.090909  0.000000      4.000000
  0.363636  0.090909  0.000000      4.000000
  0.454545  0.090909  0.000000      4.000000
 -0.454545  0.090909  0.000000      4.000000
 -0.363636  0.090909  0.000000      4.000000
 -0.272727  0.090909  0.000000      4.000000
 -0.181818  0.090909  0.000000      4.000000
 -0.090909  0.090909  0.000000      2.000000
  0.181818  0.181818  0.000000      2.000000
  0.272727  0.181818  0.000000      4.000000
  0.363636  0.181818  0.000000      4.000000
  0.454545  0.181818  0.000000      4.000000
 -0.454545  0.181818  0.000000      4.000000
 -0.363636  0.181818  0.000000      4.000000
 -0.272727  0.181818  0.000000      4.000000
 -0.181818  0.181818  0.000000      2.000000
  0.272727  0.272727  0.000000      2.000000
  0.363636  0.272727  0.000000      4.000000
  0.454545  0.272727  0.000000      4.000000
 -0.454545  0.272727  0.000000      4.000000
 -0.363636  0.272727  0.000000      4.000000
 -0.272727  0.272727  0.000000      2.000000
  0.363636  0.363636  0.000000      2.000000
  0.454545  0.363636  0.000000      4.000000
 -0.454545  0.363636  0.000000      4.000000
 -0.363636  0.363636  0.000000      2.000000
  0.454545  0.454545  0.000000      2.000000
 -0.454545  0.454545  0.000000      2.000000
 
 Following cartesian coordinates:
            Coordinates               Weight
  0.000000  0.000000  0.000000      1.000000
  0.025776  0.014882  0.000000      4.000000
  0.051552  0.029763  0.000000      4.000000
  0.077328  0.044645  0.000000      4.000000
  0.103104  0.059527  0.000000      4.000000
  0.128880  0.074409  0.000000      4.000000
  0.025776  0.044645  0.000000      2.000000
  0.051552  0.059527  0.000000      4.000000
  0.077328  0.074409  0.000000      4.000000
  0.103104  0.089290  0.000000      4.000000
  0.128880  0.104172  0.000000      4.000000
 -0.128880 -0.044645  0.000000      4.000000
 -0.103104 -0.029763  0.000000      4.000000
 -0.077328 -0.014882  0.000000      4.000000
 -0.051552  0.000000  0.000000      4.000000
 -0.025776  0.014882  0.000000      2.000000
  0.051552  0.089290  0.000000      2.000000
  0.077328  0.104172  0.000000      4.000000
  0.103104  0.119054  0.000000      4.000000
  0.128880  0.133936  0.000000      4.000000
 -0.128880 -0.014882  0.000000      4.000000
 -0.103104  0.000000  0.000000      4.000000
 -0.077328  0.014882  0.000000      4.000000
 -0.051552  0.029763  0.000000      2.000000
  0.077328  0.133936  0.000000      2.000000
  0.103104  0.148817  0.000000      4.000000
  0.128880  0.163699  0.000000      4.000000
 -0.128880  0.014882  0.000000      4.000000
 -0.103104  0.029763  0.000000      4.000000
 -0.077328  0.044645  0.000000      2.000000
  0.103104  0.178581  0.000000      2.000000
  0.128880  0.193463  0.000000      4.000000
 -0.128880  0.044645  0.000000      4.000000
 -0.103104  0.059527  0.000000      2.000000
  0.128880  0.223226  0.000000      2.000000
 -0.128880  0.074409  0.000000      2.000000
 


--------------------------------------------------------------------------------------------------------




 Dimension of arrays:
   k-points           NKPTS =     36   k-points in BZ     NKDIM =     36   number of bands    NBANDS=     16
   number of dos      NEDOS =    301   number of ions     NIONS =      3
   non local maximal  LDIM  =      6   non local SUM 2l+1 LMDIM =     18
   total plane-waves  NPLWV =  56448
   max r-space proj   IRMAX =      1   max aug-charges    IRDMAX=   5870
   dimension x,y,z NGX =    24 NGY =   24 NGZ =   98
   dimension x,y,z NGXF=    36 NGYF=   36 NGZF=  140
   support grid    NGXF=    36 NGYF=   36 NGZF=  140
   ions per type =               2   1
 NGX,Y,Z   is equivalent  to a cutoff of  11.31, 11.31, 11.13 a.u.
 NGXF,Y,Z  is equivalent  to a cutoff of  16.97, 16.97, 15.90 a.u.


 I would recommend the setting:
   dimension x,y,z NGX =    23 NGY =   23 NGZ =   97
 SYSTEM =  CoCl2 vaccu=15A                         
 POSCAR =  CoCl2_mp-696114_conventional_standard\(0

 Startparameter for this run:
   NWRITE =      2    write-flag & timer
   PREC   = high      normal or accurate (medium, high low for compatibility)
   ISTART =      0    job   : 0-new  1-cont  2-samecut
   ICHARG =      2    charge: 1-file 2-atom 10-const
   ISPIN  =      1    spin polarized calculation?
   LNONCOLLINEAR =      F non collinear calculations
   LSORBIT =      F    spin-orbit coupling
   INIWAV =      1    electr: 0-lowe 1-rand  2-diag
   LASPH  =      F    aspherical Exc in radial PAW
   METAGGA=      F    non-selfconsistent MetaGGA calc.

 Electronic Relaxation 1
   ENCUT  =  410.0 eV  30.13 Ry    5.49 a.u.   5.82  5.82 24.17*2*pi/ulx,y,z
   ENINI  =  410.0     initial cutoff
   ENAUG  =  477.8 eV  augmentation charge cutoff
   NELM   =    200;   NELMIN=  2; NELMDL= -5     # of ELM steps 
   EDIFF  = 0.1E-04   stopping-criterion for ELM
   LREAL  =      F    real-space projection
   NLSPLINE    = F    spline interpolate recip. space projectors
   LCOMPAT=      F    compatible to vasp.4.4
   GGA_COMPAT  = T    GGA compatible to vasp.4.4-vasp.4.6
   LMAXPAW     = -100 max onsite density
   LMAXMIX     =    2 max onsite mixed and CHGCAR
   VOSKOWN=      0    Vosko Wilk Nusair interpolation
   ROPT   =    0.00000   0.00000
 Ionic relaxation
   EDIFFG = -.1E-01   stopping-criterion for IOM
   NSW    =    200    number of steps for IOM
   NBLOCK =      1;   KBLOCK =    200    inner block; outer block 
   IBRION =      1    ionic relax: 0-MD 1-quasi-New 2-CG
   NFREE  =      0    steps in history (QN), initial steepest desc. (CG)
   ISIF   =      4    stress and relaxation
   IWAVPR =     11    prediction:  0-non 1-charg 2-wave 3-comb
   ISYM   =      2    0-nonsym 1-usesym 2-fastsym
   LCORR  =      T    Harris-Foulkes like correction to forces

   POTIM  = 0.5000    time-step for ionic-motion
   TEIN   =    0.0    initial temperature
   TEBEG  =    0.0;   TEEND  =   0.0 temperature during run
   SMASS  =  -3.00    Nose mass-parameter (am)
   estimated Nose-frequenzy (Omega)   =  0.10E-29 period in steps =****** mass=  -0.284E-27a.u.
   SCALEE = 1.0000    scale energy and forces
   NPACO  =    256;   APACO  = 16.0  distance and # of slots for P.C.
   PSTRESS=    0.0 pullay stress

  Mass of Ions in am
   POMASS =  35.45 58.93
  Ionic Valenz
   ZVAL   =   7.00  9.00
  Atomic Wigner-Seitz radii
   RWIGS  =  -1.00 -1.00
  virtual crystal weights 
   VCA    =   1.00  1.00
   NELECT =      23.0000    total number of electrons
   NUPDOWN=      -1.0000    fix difference up-down

 DOS related values:
   EMIN   =  10.00;   EMAX   =-10.00  energy-range for DOS
   EFERMI =   0.00
   ISMEAR =     0;   SIGMA  =   0.01  broadening in eV -4-tet -1-fermi 0-gaus

 Electronic relaxation 2 (details)
   IALGO  =     38    algorithm
   LDIAG  =      T    sub-space diagonalisation (order eigenvalues)
   LSUBROT=      F    optimize rotation matrix (better conditioning)
   TURBO    =      0    0=normal 1=particle mesh
   IRESTART =      0    0=no restart 2=restart with 2 vectors
   NREBOOT  =      0    no. of reboots
   NMIN     =      0    reboot dimension
   EREF     =   0.00    reference energy to select bands
   IMIX   =      4    mixing-type and parameters
     AMIX     =   0.40;   BMIX     =  1.00
     AMIX_MAG =   1.60;   BMIX_MAG =  1.00
     AMIN     =   0.10
     WC   =   100.;   INIMIX=   1;  MIXPRE=   1;  MAXMIX= -45

 Intra band minimization:
   WEIMIN = 0.0010     energy-eigenvalue tresh-hold
   EBREAK =  0.16E-06  absolut break condition
   DEPER  =   0.30     relativ break condition  

   TIME   =   0.40     timestep for ELM

  volume/ion in A,a.u.               =      52.57       354.78
  Fermi-wavevector in a.u.,A,eV,Ry     =   0.861700  1.628376 10.102682  0.742526
  Thomas-Fermi vector in A             =   1.979392
 
 Write flags
   LWAVE  =      T    write WAVECAR
   LCHARG =      T    write CHGCAR
   LVTOT  =      F    write LOCPOT, total local potential
   LVHAR  =      F    write LOCPOT, Hartree potential only
   LELF   =      F    write electronic localiz. function (ELF)
   LORBIT =      0    0 simple, 1 ext, 2 COOP (PROOUT)


 Dipole corrections
   LMONO  =      F    monopole corrections only (constant potential shift)
   LDIPOL =      F    correct potential (dipole corrections)
   IDIPOL =      0    1-x, 2-y, 3-z, 4-all directions 
   EPSILON=  1.0000000 bulk dielectric constant

 Exchange correlation treatment:
   GGA     =    --    GGA type
   LEXCH   =     8    internal setting for exchange type
   VOSKOWN=      0    Vosko Wilk Nusair interpolation
   LHFCALC =     F    Hartree Fock is set to
   LHFONE  =     F    Hartree Fock one center treatment
   AEXX    =    0.0000 exact exchange contribution

 Linear response parameters
   LEPSILON=     F    determine dielectric tensor
   LRPA    =     F    only Hartree local field effects (RPA)
   LNABLA  =     F    use nabla operator in PAW spheres
   LVEL    =     F    velocity operator in full k-point grid
   LINTERFAST=   F  fast interpolation
   KINTER  =     0    interpolate to denser k-point grid
   CSHIFT  =0.1000    complex shift for real part using Kramers Kronig
   OMEGAMAX=  -1.0    maximum frequency
   DEG_THRESHOLD= 0.2000000E-02 threshold for treating states as degnerate
   RTIME   =    0.100 relaxation time in fs

 Orbital magnetization related:
   ORBITALMAG=     F  switch on orbital magnetization
   LCHIMAG   =     F  perturbation theory with respect to B field
   DQ        =  0.001000  dq finite difference perturbation B field



--------------------------------------------------------------------------------------------------------


 quasi-Newton-method for relaxation of ions
 charge density and potential will be updated during run
 non-spin polarized calculation
 Variant of blocked Davidson
 Davidson routine will perform the subspace rotation
 perform sub-space diagonalisation
    after iterative eigenvector-optimisation
 modified Broyden-mixing scheme, WC =      100.0
 initial mixing is a Kerker type mixing with AMIX =  0.4000 and BMIX =      1.0000
 Hartree-type preconditioning will be used
 using additional bands            4
 reciprocal scheme for non local part
 use partial core corrections
 calculate Harris-corrections to forces 
   (improved forces if not selfconsistent)
 use gradient corrections 
 use of overlap-Matrix (Vanderbilt PP)
 Gauss-broadening in eV      SIGMA  =   0.01


--------------------------------------------------------------------------------------------------------


  energy-cutoff  :      410.00
  volume of cell :      157.72
      direct lattice vectors                 reciprocal lattice vectors
     3.526900053  0.000000000  0.000000000     0.283535112  0.163699073  0.000000000
    -1.763450026  3.054385042  0.000000000     0.000000000  0.327398146  0.000000000
     0.000000000  0.000000000 14.640899658     0.000000000  0.000000000  0.068301814

  length of vectors
     3.526900053  3.526900053 14.640899658     0.327398146  0.327398146  0.068301814


 
 k-points in units of 2pi/SCALE and weight: Auto                                    
   0.00000000  0.00000000  0.00000000       0.008
   0.02577592  0.01488173  0.00000000       0.033
   0.05155184  0.02976347  0.00000000       0.033
   0.07732776  0.04464520  0.00000000       0.033
   0.10310368  0.05952694  0.00000000       0.033
   0.12887960  0.07440867  0.00000000       0.033
   0.02577592  0.04464520  0.00000000       0.017
   0.05155184  0.05952694  0.00000000       0.033
   0.07732776  0.07440867  0.00000000       0.033
   0.10310368  0.08929040  0.00000000       0.033
   0.12887960  0.10417214  0.00000000       0.033
  -0.12887960 -0.04464520  0.00000000       0.033
  -0.10310368 -0.02976347  0.00000000       0.033
  -0.07732776 -0.01488173  0.00000000       0.033
  -0.05155184  0.00000000  0.00000000       0.033
  -0.02577592  0.01488173  0.00000000       0.017
   0.05155184  0.08929040  0.00000000       0.017
   0.07732776  0.10417214  0.00000000       0.033
   0.10310368  0.11905387  0.00000000       0.033
   0.12887960  0.13393561  0.00000000       0.033
  -0.12887960 -0.01488173  0.00000000       0.033
  -0.10310368  0.00000000  0.00000000       0.033
  -0.07732776  0.01488173  0.00000000       0.033
  -0.05155184  0.02976347  0.00000000       0.017
   0.07732776  0.13393561  0.00000000       0.017
   0.10310368  0.14881734  0.00000000       0.033
   0.12887960  0.16369907  0.00000000       0.033
  -0.12887960  0.01488173  0.00000000       0.033
  -0.10310368  0.02976347  0.00000000       0.033
  -0.07732776  0.04464520  0.00000000       0.017
   0.10310368  0.17858081  0.00000000       0.017
   0.12887960  0.19346254  0.00000000       0.033
  -0.12887960  0.04464520  0.00000000       0.033
  -0.10310368  0.05952694  0.00000000       0.017
   0.12887960  0.22322601  0.00000000       0.017
  -0.12887960  0.07440867  0.00000000       0.017
 
 k-points in reciprocal lattice and weights: Auto                                    
   0.00000000  0.00000000  0.00000000       0.008
   0.09090909  0.00000000  0.00000000       0.033
   0.18181818  0.00000000  0.00000000       0.033
   0.27272727  0.00000000  0.00000000       0.033
   0.36363636  0.00000000  0.00000000       0.033
   0.45454545  0.00000000  0.00000000       0.033
   0.09090909  0.09090909  0.00000000       0.017
   0.18181818  0.09090909  0.00000000       0.033
   0.27272727  0.09090909  0.00000000       0.033
   0.36363636  0.09090909  0.00000000       0.033
   0.45454545  0.09090909  0.00000000       0.033
  -0.45454545  0.09090909  0.00000000       0.033
  -0.36363636  0.09090909  0.00000000       0.033
  -0.27272727  0.09090909  0.00000000       0.033
  -0.18181818  0.09090909  0.00000000       0.033
  -0.09090909  0.09090909  0.00000000       0.017
   0.18181818  0.18181818  0.00000000       0.017
   0.27272727  0.18181818  0.00000000       0.033
   0.36363636  0.18181818  0.00000000       0.033
   0.45454545  0.18181818  0.00000000       0.033
  -0.45454545  0.18181818  0.00000000       0.033
  -0.36363636  0.18181818  0.00000000       0.033
  -0.27272727  0.18181818  0.00000000       0.033
  -0.18181818  0.18181818  0.00000000       0.017
   0.27272727  0.27272727  0.00000000       0.017
   0.36363636  0.27272727  0.00000000       0.033
   0.45454545  0.27272727  0.00000000       0.033
  -0.45454545  0.27272727  0.00000000       0.033
  -0.36363636  0.27272727  0.00000000       0.033
  -0.27272727  0.27272727  0.00000000       0.017
   0.36363636  0.36363636  0.00000000       0.017
   0.45454545  0.36363636  0.00000000       0.033
  -0.45454545  0.36363636  0.00000000       0.033
  -0.36363636  0.36363636  0.00000000       0.017
   0.45454545  0.45454545  0.00000000       0.017
  -0.45454545  0.45454545  0.00000000       0.017
 
 position of ions in fractional coordinates (direct lattice) 
   0.66667003  0.33332999  0.00000000
   0.33332999  0.66666998  0.18038000
   0.00000000  0.00000000  0.09019000
 
 position of ions in cartesian coordinates  (Angst):
   1.76346779  1.01811814  0.00000000
  -0.00001764  2.03626680  2.64092541
   0.00000000  0.00000000  1.32046271
 


--------------------------------------------------------------------------------------------------------


 k-point  1 :   0.0000 0.0000 0.0000  plane waves:    2971
 k-point  2 :   0.0909 0.0000 0.0000  plane waves:    2950
 k-point  3 :   0.1818 0.0000 0.0000  plane waves:    2950
 k-point  4 :   0.2727 0.0000 0.0000  plane waves:    2966
 k-point  5 :   0.3636 0.0000 0.0000  plane waves:    2986
 k-point  6 :   0.4545 0.0000 0.0000  plane waves:    2998
 k-point  7 :   0.0909 0.0909 0.0000  plane waves:    2954
 k-point  8 :   0.1818 0.0909 0.0000  plane waves:    2958
 k-point  9 :   0.2727 0.0909 0.0000  plane waves:    2983
 k-point 10 :   0.3636 0.0909 0.0000  plane waves:    2977
 k-point 11 :   0.4545 0.0909 0.0000  plane waves:    2984
 k-point 12 :  -0.4545 0.0909 0.0000  plane waves:    2977
 k-point 13 :  -0.3636 0.0909 0.0000  plane waves:    2983
 k-point 14 :  -0.2727 0.0909 0.0000  plane waves:    2958
 k-point 15 :  -0.1818 0.0909 0.0000  plane waves:    2954
 k-point 16 :  -0.0909 0.0909 0.0000  plane waves:    2950
 k-point 17 :   0.1818 0.1818 0.0000  plane waves:    2978
 k-point 18 :   0.2727 0.1818 0.0000  plane waves:    2983
 k-point 19 :   0.3636 0.1818 0.0000  plane waves:    2970
 k-point 20 :   0.4545 0.1818 0.0000  plane waves:    2970
 k-point 21 :  -0.4545 0.1818 0.0000  plane waves:    2983
 k-point 22 :  -0.3636 0.1818 0.0000  plane waves:    2978
 k-point 23 :  -0.2727 0.1818 0.0000  plane waves:    2958
 k-point 24 :  -0.1818 0.1818 0.0000  plane waves:    2950
 k-point 25 :   0.2727 0.2727 0.0000  plane waves:    2976
 k-point 26 :   0.3636 0.2727 0.0000  plane waves:    2966
 k-point 27 :   0.4545 0.2727 0.0000  plane waves:    2976
 k-point 28 :  -0.4545 0.2727 0.0000  plane waves:    2983
 k-point 29 :  -0.3636 0.2727 0.0000  plane waves:    2983
 k-point 30 :  -0.2727 0.2727 0.0000  plane waves:    2966
 k-point 31 :   0.3636 0.3636 0.0000  plane waves:    2966
 k-point 32 :   0.4545 0.3636 0.0000  plane waves:    2970
 k-point 33 :  -0.4545 0.3636 0.0000  plane waves:    2977
 k-point 34 :  -0.3636 0.3636 0.0000  plane waves:    2986
 k-point 35 :   0.4545 0.4545 0.0000  plane waves:    2984
 k-point 36 :  -0.4545 0.4545 0.0000  plane waves:    2998

 maximum and minimum number of plane-waves per node :      2998     2950

 maximum number of plane-waves:      2998
 maximum index in each direction: 
   IXMAX=    6   IYMAX=    5   IZMAX=   24
   IXMIN=   -6   IYMIN=   -6   IZMIN=  -24

 WARNING: aliasing errors must be expected set NGX to  26 to avoid them
 NGY is ok and might be reduce to  24
 NGZ is ok and might be reduce to  98
 aliasing errors are usually negligible using standard VASP settings
 and one can safely disregard these warnings

 serial   3D FFT for wavefunctions
 parallel 3D FFT for charge:
    minimum data exchange during FFTs selected (reduces bandwidth)


 total amount of memory used by VASP on root node    74994. kBytes
========================================================================

   base      :      30000. kBytes
   nonl-proj :      31248. kBytes
   fftplans  :       1873. kBytes
   grid      :       4833. kBytes
   one-center:         46. kBytes
   wavefun   :       6994. kBytes
 
     INWAV:  cpu time    0.0000: real time    0.0001
 Broyden mixing: mesh for mixing (old mesh)
   NGX = 11   NGY = 11   NGZ = 49
  (NGX  = 36   NGY  = 36   NGZ  =140)
  gives a total of   5929 points

 initial charge density was supplied:
 charge density of overlapping atoms calculated
 number of electron      23.0000000 magnetization 
 keeping initial charge density in first step


--------------------------------------------------------------------------------------------------------


 Maximum index for augmentation-charges         1344 (set IRDMAX)


--------------------------------------------------------------------------------------------------------


 First call to EWALD:  gamma=   0.328
 Maximum number of real-space cells 4x 4x 1
 Maximum number of reciprocal cells 2x 2x 7

 FEWALD executed in parallel
    FEWALD:  cpu time    0.0011: real time    0.0013


----------------------------------------- Iteration    1(   1)  ---------------------------------------


    POTLOK:  cpu time    0.0277: real time    0.0282
    SETDIJ:  cpu time    0.0024: real time    0.0024
     EDDAV:  cpu time    1.9633: real time    2.0128
       DOS:  cpu time    0.0005: real time    0.0005
    --------------------------------------------
      LOOP:  cpu time    1.9952: real time    2.0462

 eigenvalue-minimisations  :  1152
 total energy-change (2. order) : 0.1629782E+03  (-0.7862508E+03)
 number of electron      23.0000000 magnetization 
 augmentation part       23.0000000 magnetization 

 Free energy of the ion-electron system (eV)
  ---------------------------------------------------
  alpha Z        PSCENC =        15.66301550
  Ewald energy   TEWEN  =      1626.54250004
  -Hartree energ DENC   =     -3132.21272604
  -exchange      EXHF   =         0.00000000
  -V(xc)+E(xc)   XCENC  =        56.12081122
  PAW double counting   =      1371.56239426    -1424.81982115
  entropy T*S    EENTRO =        -0.00017728
  eigenvalues    EBANDS =        17.32768754
  atomic energy  EATOM  =      1632.79452054
  Solvation  Ediel_sol  =         0.00000000
  ---------------------------------------------------
  free energy    TOTEN  =       162.97820463 eV

  energy without entropy =      162.97838191  energy(sigma->0) =      162.97829327


--------------------------------------------------------------------------------------------------------




----------------------------------------- Iteration    1(   2)  ---------------------------------------


     EDDAV:  cpu time    2.1837: real time    2.2602
       DOS:  cpu time    0.0004: real time    0.0004
    --------------------------------------------
      LOOP:  cpu time    2.1849: real time    2.2642

 eigenvalue-minimisations  :  1432
 total energy-change (2. order) :-0.1530129E+03  (-0.1480359E+03)
 number of electron      23.0000000 magnetization 
 augmentation part       23.0000000 magnetization 

 Free energy of the ion-electron system (eV)
  ---------------------------------------------------
  alpha Z        PSCENC =        15.66301550
  Ewald energy   TEWEN  =      1626.54250004
  -Hartree energ DENC   =     -3132.21272604
  -exchange      EXHF   =         0.00000000
  -V(xc)+E(xc)   XCENC  =        56.12081122
  PAW double counting   =      1371.56239426    -1424.81982115
  entropy T*S    EENTRO =        -0.00064720
  eigenvalues    EBANDS =      -135.68476554
  atomic energy  EATOM  =      1632.79452054
  Solvation  Ediel_sol  =         0.00000000
  ---------------------------------------------------
  free energy    TOTEN  =         9.96528163 eV

  energy without entropy =        9.96592883  energy(sigma->0) =        9.96560523


--------------------------------------------------------------------------------------------------------




----------------------------------------- Iteration    1(   3)  ---------------------------------------


     EDDAV:  cpu time    2.2991: real time    2.3785
       DOS:  cpu time    0.0004: real time    0.0004
    --------------------------------------------
      LOOP:  cpu time    2.3002: real time    2.3817

 eigenvalue-minimisations  :  1504
 total energy-change (2. order) :-0.2215740E+02  (-0.2186173E+02)
 number of electron      23.0000000 magnetization 
 augmentation part       23.0000000 magnetization 

 Free energy of the ion-electron system (eV)
  ---------------------------------------------------
  alpha Z        PSCENC =        15.66301550
  Ewald energy   TEWEN  =      1626.54250004
  -Hartree energ DENC   =     -3132.21272604
  -exchange      EXHF   =         0.00000000
  -V(xc)+E(xc)   XCENC  =        56.12081122
  PAW double counting   =      1371.56239426    -1424.81982115
  entropy T*S    EENTRO =        -0.00095102
  eigenvalues    EBANDS =      -157.84186553
  atomic energy  EATOM  =      1632.79452054
  Solvation  Ediel_sol  =         0.00000000
  ---------------------------------------------------
  free energy    TOTEN  =       -12.19212217 eV

  energy without entropy =      -12.19117116  energy(sigma->0) =      -12.19164666


--------------------------------------------------------------------------------------------------------




----------------------------------------- Iteration    1(   4)  ---------------------------------------


     EDDAV:  cpu time    2.3064: real time    2.3809
       DOS:  cpu time    0.0004: real time    0.0004
    --------------------------------------------
      LOOP:  cpu time    2.3075: real time    2.3840

 eigenvalue-minimisations  :  1552
 total energy-change (2. order) :-0.5574595E+00  (-0.5564920E+00)
 number of electron      23.0000000 magnetization 
 augmentation part       23.0000000 magnetization 

 Free energy of the ion-electron system (eV)
  ---------------------------------------------------
  alpha Z        PSCENC =        15.66301550
  Ewald energy   TEWEN  =      1626.54250004
  -Hartree energ DENC   =     -3132.21272604
  -exchange      EXHF   =         0.00000000
  -V(xc)+E(xc)   XCENC  =        56.12081122
  PAW double counting   =      1371.56239426    -1424.81982115
  entropy T*S    EENTRO =        -0.00116181
  eigenvalues    EBANDS =      -158.39911426
  atomic energy  EATOM  =      1632.79452054
  Solvation  Ediel_sol  =         0.00000000
  ---------------------------------------------------
  free energy    TOTEN  =       -12.74958170 eV

  energy without entropy =      -12.74841988  energy(sigma->0) =      -12.74900079


--------------------------------------------------------------------------------------------------------




----------------------------------------- Iteration    1(   5)  ---------------------------------------


     EDDAV:  cpu time    2.4574: real time    2.5312
       DOS:  cpu time    0.0004: real time    0.0004
    CHARGE:  cpu time    0.1536: real time    0.1565
    MIXING:  cpu time    0.0012: real time    0.0012
    --------------------------------------------
      LOOP:  cpu time    2.6133: real time    2.6922

 eigenvalue-minimisations  :  1664
 total energy-change (2. order) :-0.1700931E-01  (-0.1700759E-01)
 number of electron      23.0000029 magnetization 
 augmentation part        2.7926655 magnetization 

 Broyden mixing:
  rms(total) = 0.10195E+01    rms(broyden)= 0.10181E+01
  rms(prec ) = 0.11213E+01
  weight for this iteration     100.00

 Free energy of the ion-electron system (eV)
  ---------------------------------------------------
  alpha Z        PSCENC =        15.66301550
  Ewald energy   TEWEN  =      1626.54250004
  -Hartree energ DENC   =     -3132.21272604
  -exchange      EXHF   =         0.00000000
  -V(xc)+E(xc)   XCENC  =        56.12081122
  PAW double counting   =      1371.56239426    -1424.81982115
  entropy T*S    EENTRO =        -0.00116308
  eigenvalues    EBANDS =      -158.41612231
  atomic energy  EATOM  =      1632.79452054
  Solvation  Ediel_sol  =         0.00000000
  ---------------------------------------------------
  free energy    TOTEN  =       -12.76659101 eV

  energy without entropy =      -12.76542793  energy(sigma->0) =      -12.76600947


--------------------------------------------------------------------------------------------------------




----------------------------------------- Iteration    1(   6)  ---------------------------------------


    POTLOK:  cpu time    0.0225: real time    0.0260
    SETDIJ:  cpu time    0.0015: real time    0.0022
     EDDAV:  cpu time    2.2161: real time    2.2813
       DOS:  cpu time    0.0004: real time    0.0004
    CHARGE:  cpu time    0.1655: real time    0.1711
    MIXING:  cpu time    0.0011: real time    0.0012
    --------------------------------------------
      LOOP:  cpu time    2.4079: real time    2.4856

 eigenvalue-minimisations  :  1448
 total energy-change (2. order) :-0.4327515E+00  (-0.1597668E+01)
 number of electron      23.0000043 magnetization 
 augmentation part        4.3420423 magnetization 

 Broyden mixing:
  rms(total) = 0.13177E+01    rms(broyden)= 0.13176E+01
  rms(prec ) = 0.15049E+01
  weight for this iteration     100.00

 eigenvalues of (default mixing * dielectric matrix)
  average eigenvalue GAMMA=   0.3800
  0.3800

 Free energy of the ion-electron system (eV)
  ---------------------------------------------------
  alpha Z        PSCENC =        15.66301550
  Ewald energy   TEWEN  =      1626.54250004
  -Hartree energ DENC   =     -3112.32824071
  -exchange      EXHF   =         0.00000000
  -V(xc)+E(xc)   XCENC  =        55.69675051
  PAW double counting   =      1488.19275008    -1536.01942437
  entropy T*S    EENTRO =        -0.00013161
  eigenvalues    EBANDS =      -183.74108252
  atomic energy  EATOM  =      1632.79452054
  Solvation  Ediel_sol  =         0.00000000
  ---------------------------------------------------
  free energy    TOTEN  =       -13.19934253 eV

  energy without entropy =      -13.19921092  energy(sigma->0) =      -13.19927673


--------------------------------------------------------------------------------------------------------




----------------------------------------- Iteration    1(   7)  ---------------------------------------


    POTLOK:  cpu time    0.0231: real time    0.0289
    SETDIJ:  cpu time    0.0020: real time    0.0021
     EDDAV:  cpu time    1.9777: real time    2.0306
       DOS:  cpu time    0.0004: real time    0.0004
    CHARGE:  cpu time    0.1542: real time    0.1572
    MIXING:  cpu time    0.0011: real time    0.0011
    --------------------------------------------
      LOOP:  cpu time    2.1593: real time    2.2237

 eigenvalue-minimisations  :  1256
 total energy-change (2. order) : 0.1609219E+01  (-0.5386361E+00)
 number of electron      23.0000033 magnetization 
 augmentation part        3.2753181 magnetization 

 Broyden mixing:
  rms(total) = 0.44976E+00    rms(broyden)= 0.44934E+00
  rms(prec ) = 0.46030E+00
  weight for this iteration     100.00

 eigenvalues of (default mixing * dielectric matrix)
  average eigenvalue GAMMA=   1.1820
  2.0096  0.3545

 Free energy of the ion-electron system (eV)
  ---------------------------------------------------
  alpha Z        PSCENC =        15.66301550
  Ewald energy   TEWEN  =      1626.54250004
  -Hartree energ DENC   =     -3125.79556998
  -exchange      EXHF   =         0.00000000
  -V(xc)+E(xc)   XCENC  =        55.98602544
  PAW double counting   =      1556.47066420    -1608.61791573
  entropy T*S    EENTRO =        -0.00096853
  eigenvalues    EBANDS =      -164.63239507
  atomic energy  EATOM  =      1632.79452054
  Solvation  Ediel_sol  =         0.00000000
  ---------------------------------------------------
  free energy    TOTEN  =       -11.59012358 eV

  energy without entropy =      -11.58915505  energy(sigma->0) =      -11.58963932


--------------------------------------------------------------------------------------------------------




----------------------------------------- Iteration    1(   8)  ---------------------------------------


    POTLOK:  cpu time    0.0246: real time    0.0287
    SETDIJ:  cpu time    0.0020: real time    0.0021
     EDDAV:  cpu time    2.5873: real time    2.6543
       DOS:  cpu time    0.0004: real time    0.0004
    CHARGE:  cpu time    0.1511: real time    0.1561
    MIXING:  cpu time    0.0011: real time    0.0011
    --------------------------------------------
      LOOP:  cpu time    2.7672: real time    2.8461

 eigenvalue-minimisations  :  1776
 total energy-change (2. order) :-0.1758984E-01  (-0.6265386E-01)
 number of electron      23.0000033 magnetization 
 augmentation part        3.3567114 magnetization 

 Broyden mixing:
  rms(total) = 0.96347E-01    rms(broyden)= 0.96334E-01
  rms(prec ) = 0.98777E-01
  weight for this iteration     100.00

 eigenvalues of (default mixing * dielectric matrix)
  average eigenvalue GAMMA=   1.1254
  0.3546  0.7431  2.2784

 Free energy of the ion-electron system (eV)
  ---------------------------------------------------
  alpha Z        PSCENC =        15.66301550
  Ewald energy   TEWEN  =      1626.54250004
  -Hartree energ DENC   =     -3123.32801828
  -exchange      EXHF   =         0.00000000
  -V(xc)+E(xc)   XCENC  =        55.98649883
  PAW double counting   =      1776.67223424    -1829.56523252
  entropy T*S    EENTRO =        -0.00094828
  eigenvalues    EBANDS =      -166.37228349
  atomic energy  EATOM  =      1632.79452054
  Solvation  Ediel_sol  =         0.00000000
  ---------------------------------------------------
  free energy    TOTEN  =       -11.60771342 eV

  energy without entropy =      -11.60676514  energy(sigma->0) =      -11.60723928


--------------------------------------------------------------------------------------------------------




----------------------------------------- Iteration    1(   9)  ---------------------------------------


    POTLOK:  cpu time    0.0235: real time    0.0376
    SETDIJ:  cpu time    0.0022: real time    0.0024
     EDDAV:  cpu time    2.6421: real time    2.7174
       DOS:  cpu time    0.0004: real time    0.0004
    CHARGE:  cpu time    0.1517: real time    0.1567
    MIXING:  cpu time    0.0012: real time    0.0012
    --------------------------------------------
      LOOP:  cpu time    2.8220: real time    2.9193

 eigenvalue-minimisations  :  1776
 total energy-change (2. order) : 0.2423261E-03  (-0.2596845E-02)
 number of electron      23.0000034 magnetization 
 augmentation part        3.3705211 magnetization 

 Broyden mixing:
  rms(total) = 0.47289E-01    rms(broyden)= 0.47286E-01
  rms(prec ) = 0.48494E-01
  weight for this iteration     100.00

 eigenvalues of (default mixing * dielectric matrix)
  average eigenvalue GAMMA=   1.2036
  2.3716  0.3550  1.0439  1.0439

 Free energy of the ion-electron system (eV)
  ---------------------------------------------------
  alpha Z        PSCENC =        15.66301550
  Ewald energy   TEWEN  =      1626.54250004
  -Hartree energ DENC   =     -3123.89447359
  -exchange      EXHF   =         0.00000000
  -V(xc)+E(xc)   XCENC  =        56.02688643
  PAW double counting   =      1791.34813434    -1844.41767290
  entropy T*S    EENTRO =        -0.00106837
  eigenvalues    EBANDS =      -165.66931310
  atomic energy  EATOM  =      1632.79452054
  Solvation  Ediel_sol  =         0.00000000
  ---------------------------------------------------
  free energy    TOTEN  =       -11.60747109 eV

  energy without entropy =      -11.60640272  energy(sigma->0) =      -11.60693691


--------------------------------------------------------------------------------------------------------




----------------------------------------- Iteration    1(  10)  ---------------------------------------


    POTLOK:  cpu time    0.0237: real time    0.0338
    SETDIJ:  cpu time    0.0020: real time    0.0031
     EDDAV:  cpu time    2.7927: real time    2.8960
       DOS:  cpu time    0.0004: real time    0.0007
    CHARGE:  cpu time    0.1502: real time    0.1535
    MIXING:  cpu time    0.0012: real time    0.0012
    --------------------------------------------
      LOOP:  cpu time    2.9712: real time    3.0918

 eigenvalue-minimisations  :  1784
 total energy-change (2. order) : 0.4785307E-03  (-0.2344156E-03)
 number of electron      23.0000033 magnetization 
 augmentation part        3.3641088 magnetization 

 Broyden mixing:
  rms(total) = 0.23183E-01    rms(broyden)= 0.23179E-01
  rms(prec ) = 0.23857E-01
  weight for this iteration     100.00

 eigenvalues of (default mixing * dielectric matrix)
  average eigenvalue GAMMA=   1.2589
  2.4852  1.8096  0.3550  0.9364  0.7081

 Free energy of the ion-electron system (eV)
  ---------------------------------------------------
  alpha Z        PSCENC =        15.66301550
  Ewald energy   TEWEN  =      1626.54250004
  -Hartree energ DENC   =     -3124.60838155
  -exchange      EXHF   =         0.00000000
  -V(xc)+E(xc)   XCENC  =        56.04974688
  PAW double counting   =      1784.49529971    -1837.68791738
  entropy T*S    EENTRO =        -0.00101484
  eigenvalues    EBANDS =      -164.85476146
  atomic energy  EATOM  =      1632.79452054
  Solvation  Ediel_sol  =         0.00000000
  ---------------------------------------------------
  free energy    TOTEN  =       -11.60699256 eV

  energy without entropy =      -11.60597773  energy(sigma->0) =      -11.60648514


--------------------------------------------------------------------------------------------------------




----------------------------------------- Iteration    1(  11)  ---------------------------------------


    POTLOK:  cpu time    0.0237: real time    0.0353
    SETDIJ:  cpu time    0.0018: real time    0.0020
     EDDAV:  cpu time    2.5589: real time    2.6264
       DOS:  cpu time    0.0005: real time    0.0005
    CHARGE:  cpu time    0.1915: real time    0.1988
    MIXING:  cpu time    0.0020: real time    0.0020
    --------------------------------------------
      LOOP:  cpu time    2.7792: real time    2.8686

 eigenvalue-minimisations  :  1688
 total energy-change (2. order) : 0.9589214E-04  (-0.1002393E-03)
 number of electron      23.0000034 magnetization 
 augmentation part        3.3629152 magnetization 

 Broyden mixing:
  rms(total) = 0.15066E-01    rms(broyden)= 0.15029E-01
  rms(prec ) = 0.15829E-01
  weight for this iteration     100.00

 eigenvalues of (default mixing * dielectric matrix)
  average eigenvalue GAMMA=   1.1584
  2.5249  2.0274  0.9191  0.7875  0.3554  0.3360

 Free energy of the ion-electron system (eV)
  ---------------------------------------------------
  alpha Z        PSCENC =        15.66301550
  Ewald energy   TEWEN  =      1626.54250004
  -Hartree energ DENC   =     -3125.08362946
  -exchange      EXHF   =         0.00000000
  -V(xc)+E(xc)   XCENC  =        56.06039745
  PAW double counting   =      1776.40935626    -1829.63160327
  entropy T*S    EENTRO =        -0.00102607
  eigenvalues    EBANDS =      -164.36042766
  atomic energy  EATOM  =      1632.79452054
  Solvation  Ediel_sol  =         0.00000000
  ---------------------------------------------------
  free energy    TOTEN  =       -11.60689667 eV

  energy without entropy =      -11.60587060  energy(sigma->0) =      -11.60638364


--------------------------------------------------------------------------------------------------------




----------------------------------------- Iteration    1(  12)  ---------------------------------------


    POTLOK:  cpu time    0.0292: real time    0.0412
    SETDIJ:  cpu time    0.0026: real time    0.0027
     EDDAV:  cpu time    2.7611: real time    2.8347
       DOS:  cpu time    0.0005: real time    0.0005
    CHARGE:  cpu time    0.1847: real time    0.1915
    MIXING:  cpu time    0.0018: real time    0.0018
    --------------------------------------------
      LOOP:  cpu time    2.9811: real time    3.0769

 eigenvalue-minimisations  :  1624
 total energy-change (2. order) :-0.1762411E-04  (-0.1308087E-03)
 number of electron      23.0000034 magnetization 
 augmentation part        3.3635596 magnetization 

 Broyden mixing:
  rms(total) = 0.13047E-01    rms(broyden)= 0.12949E-01
  rms(prec ) = 0.13699E-01
  weight for this iteration     100.00

 eigenvalues of (default mixing * dielectric matrix)
  average eigenvalue GAMMA=   1.1732
  2.4171  2.4171  1.1808  0.3550  0.8697  0.7680  0.2045

 Free energy of the ion-electron system (eV)
  ---------------------------------------------------
  alpha Z        PSCENC =        15.66301550
  Ewald energy   TEWEN  =      1626.54250004
  -Hartree energ DENC   =     -3125.22172043
  -exchange      EXHF   =         0.00000000
  -V(xc)+E(xc)   XCENC  =        56.06216857
  PAW double counting   =      1773.59165344    -1826.81031912
  entropy T*S    EENTRO =        -0.00101561
  eigenvalues    EBANDS =      -164.22771723
  atomic energy  EATOM  =      1632.79452054
  Solvation  Ediel_sol  =         0.00000000
  ---------------------------------------------------
  free energy    TOTEN  =       -11.60691429 eV

  energy without entropy =      -11.60589869  energy(sigma->0) =      -11.60640649


--------------------------------------------------------------------------------------------------------




----------------------------------------- Iteration    1(  13)  ---------------------------------------


    POTLOK:  cpu time    0.0290: real time    0.0393
    SETDIJ:  cpu time    0.0025: real time    0.0026
     EDDAV:  cpu time    2.6739: real time    2.7498
       DOS:  cpu time    0.0005: real time    0.0005
    CHARGE:  cpu time    0.1820: real time    0.1882
    MIXING:  cpu time    0.0017: real time    0.0017
    --------------------------------------------
      LOOP:  cpu time    2.8908: real time    2.9869

 eigenvalue-minimisations  :  1576
 total energy-change (2. order) :-0.6099662E-05  (-0.1390754E-03)
 number of electron      23.0000034 magnetization 
 augmentation part        3.3654108 magnetization 

 Broyden mixing:
  rms(total) = 0.13468E-01    rms(broyden)= 0.13366E-01
  rms(prec ) = 0.14073E-01
  weight for this iteration     100.00

 eigenvalues of (default mixing * dielectric matrix)
  average eigenvalue GAMMA=   1.1741
  2.5450  2.5450  1.3014  0.3550  0.9970  0.7958  0.6774  0.1766

 Free energy of the ion-electron system (eV)
  ---------------------------------------------------
  alpha Z        PSCENC =        15.66301550
  Ewald energy   TEWEN  =      1626.54250004
  -Hartree energ DENC   =     -3125.38350755
  -exchange      EXHF   =         0.00000000
  -V(xc)+E(xc)   XCENC  =        56.06259074
  PAW double counting   =      1770.09693783    -1823.29562949
  entropy T*S    EENTRO =        -0.00100433
  eigenvalues    EBANDS =      -164.08634367
  atomic energy  EATOM  =      1632.79452054
  Solvation  Ediel_sol  =         0.00000000
  ---------------------------------------------------
  free energy    TOTEN  =       -11.60692039 eV

  energy without entropy =      -11.60591606  energy(sigma->0) =      -11.60641823


--------------------------------------------------------------------------------------------------------




----------------------------------------- Iteration    1(  14)  ---------------------------------------


    POTLOK:  cpu time    0.0284: real time    0.0396
    SETDIJ:  cpu time    0.0026: real time    0.0027
     EDDAV:  cpu time    2.2250: real time    2.2836
       DOS:  cpu time    0.0005: real time    0.0005
    CHARGE:  cpu time    0.1789: real time    0.1828
    MIXING:  cpu time    0.0017: real time    0.0017
    --------------------------------------------
      LOOP:  cpu time    2.4382: real time    2.5154

 eigenvalue-minimisations  :  1208
 total energy-change (2. order) :-0.3151805E-04  (-0.1682515E-03)
 number of electron      23.0000034 magnetization 
 augmentation part        3.3659805 magnetization 

 Broyden mixing:
  rms(total) = 0.13897E-01    rms(broyden)= 0.13785E-01
  rms(prec ) = 0.14460E-01
  weight for this iteration     100.00

 eigenvalues of (default mixing * dielectric matrix)
  average eigenvalue GAMMA=   1.2947
  2.8254  2.2926  2.2926  0.3550  1.0828  1.0828  0.8987  0.6475  0.1745

 Free energy of the ion-electron system (eV)
  ---------------------------------------------------
  alpha Z        PSCENC =        15.66301550
  Ewald energy   TEWEN  =      1626.54250004
  -Hartree energ DENC   =     -3125.55636293
  -exchange      EXHF   =         0.00000000
  -V(xc)+E(xc)   XCENC  =        56.06406484
  PAW double counting   =      1768.78635797    -1821.98113450
  entropy T*S    EENTRO =        -0.00100394
  eigenvalues    EBANDS =      -163.91890944
  atomic energy  EATOM  =      1632.79452054
  Solvation  Ediel_sol  =         0.00000000
  ---------------------------------------------------
  free energy    TOTEN  =       -11.60695191 eV

  energy without entropy =      -11.60594797  energy(sigma->0) =      -11.60644994


--------------------------------------------------------------------------------------------------------




----------------------------------------- Iteration    1(  15)  ---------------------------------------


    POTLOK:  cpu time    0.0275: real time    0.0384
    SETDIJ:  cpu time    0.0024: real time    0.0025
     EDDAV:  cpu time    2.1994: real time    2.2581
       DOS:  cpu time    0.0005: real time    0.0005
    CHARGE:  cpu time    0.1827: real time    0.1888
    MIXING:  cpu time    0.0019: real time    0.0019
    --------------------------------------------
      LOOP:  cpu time    2.4154: real time    2.4943

 eigenvalue-minimisations  :  1208
 total energy-change (2. order) :-0.3165351E-04  (-0.1666744E-03)
 number of electron      23.0000034 magnetization 
 augmentation part        3.3659318 magnetization 

 Broyden mixing:
  rms(total) = 0.14508E-01    rms(broyden)= 0.14392E-01
  rms(prec ) = 0.15062E-01
  weight for this iteration     100.00

 eigenvalues of (default mixing * dielectric matrix)
  average eigenvalue GAMMA=   1.3108
  2.7802  2.5863  2.5863  1.3612  0.3550  1.0280  0.8766  0.8077  0.5526  0.1738

 Free energy of the ion-electron system (eV)
  ---------------------------------------------------
  alpha Z        PSCENC =        15.66301550
  Ewald energy   TEWEN  =      1626.54250004
  -Hartree energ DENC   =     -3125.73678818
  -exchange      EXHF   =         0.00000000
  -V(xc)+E(xc)   XCENC  =        56.06580150
  PAW double counting   =      1769.15713568    -1822.35471038
  entropy T*S    EENTRO =        -0.00099528
  eigenvalues    EBANDS =      -163.73746299
  atomic energy  EATOM  =      1632.79452054
  Solvation  Ediel_sol  =         0.00000000
  ---------------------------------------------------
  free energy    TOTEN  =       -11.60698357 eV

  energy without entropy =      -11.60598829  energy(sigma->0) =      -11.60648593


--------------------------------------------------------------------------------------------------------




----------------------------------------- Iteration    1(  16)  ---------------------------------------


    POTLOK:  cpu time    0.0269: real time    0.0376
    SETDIJ:  cpu time    0.0026: real time    0.0029
     EDDAV:  cpu time    2.3322: real time    2.3912
       DOS:  cpu time    0.0005: real time    0.0005
    CHARGE:  cpu time    0.1784: real time    0.1819
    MIXING:  cpu time    0.0019: real time    0.0019
    --------------------------------------------
      LOOP:  cpu time    2.5435: real time    2.6203

 eigenvalue-minimisations  :  1312
 total energy-change (2. order) : 0.2599379E-05  (-0.1591433E-03)
 number of electron      23.0000034 magnetization 
 augmentation part        3.3654749 magnetization 

 Broyden mixing:
  rms(total) = 0.11645E-01    rms(broyden)= 0.11521E-01
  rms(prec ) = 0.12054E-01
  weight for this iteration     100.00

 eigenvalues of (default mixing * dielectric matrix)
  average eigenvalue GAMMA=   1.2978
  2.9227  2.7499  2.3161  1.5879  0.3550  1.0456  1.0456  0.8692  0.7058  0.5041
  0.1738

 Free energy of the ion-electron system (eV)
  ---------------------------------------------------
  alpha Z        PSCENC =        15.66301550
  Ewald energy   TEWEN  =      1626.54250004
  -Hartree energ DENC   =     -3125.84169790
  -exchange      EXHF   =         0.00000000
  -V(xc)+E(xc)   XCENC  =        56.06664594
  PAW double counting   =      1769.36220641    -1822.56232967
  entropy T*S    EENTRO =        -0.00101334
  eigenvalues    EBANDS =      -163.63082848
  atomic energy  EATOM  =      1632.79452054
  Solvation  Ediel_sol  =         0.00000000
  ---------------------------------------------------
  free energy    TOTEN  =       -11.60698097 eV

  energy without entropy =      -11.60596762  energy(sigma->0) =      -11.60647430


--------------------------------------------------------------------------------------------------------




----------------------------------------- Iteration    1(  17)  ---------------------------------------


    POTLOK:  cpu time    0.0273: real time    0.0392
    SETDIJ:  cpu time    0.0024: real time    0.0025
     EDDAV:  cpu time    2.4120: real time    2.4797
       DOS:  cpu time    0.0005: real time    0.0005
    CHARGE:  cpu time    0.1786: real time    0.1823
    MIXING:  cpu time    0.0020: real time    0.0020
    --------------------------------------------
      LOOP:  cpu time    2.6239: real time    2.7109

 eigenvalue-minimisations  :  1336
 total energy-change (2. order) : 0.4394951E-05  (-0.1178322E-03)
 number of electron      23.0000034 magnetization 
 augmentation part        3.3655183 magnetization 

 Broyden mixing:
  rms(total) = 0.11613E-01    rms(broyden)= 0.11515E-01
  rms(prec ) = 0.12040E-01
  weight for this iteration     100.00

 eigenvalues of (default mixing * dielectric matrix)
  average eigenvalue GAMMA=   1.3390
  3.3057  2.5887  2.2140  2.2140  1.2747  0.3550  0.9742  0.9742  0.8676  0.6598
  0.4668  0.1737

 Free energy of the ion-electron system (eV)
  ---------------------------------------------------
  alpha Z        PSCENC =        15.66301550
  Ewald energy   TEWEN  =      1626.54250004
  -Hartree energ DENC   =     -3125.91332616
  -exchange      EXHF   =         0.00000000
  -V(xc)+E(xc)   XCENC  =        56.06719952
  PAW double counting   =      1769.24733638    -1822.44672638
  entropy T*S    EENTRO =        -0.00101612
  eigenvalues    EBANDS =      -163.56047989
  atomic energy  EATOM  =      1632.79452054
  Solvation  Ediel_sol  =         0.00000000
  ---------------------------------------------------
  free energy    TOTEN  =       -11.60697657 eV

  energy without entropy =      -11.60596045  energy(sigma->0) =      -11.60646851


--------------------------------------------------------------------------------------------------------




----------------------------------------- Iteration    1(  18)  ---------------------------------------


    POTLOK:  cpu time    0.0273: real time    0.0373
    SETDIJ:  cpu time    0.0026: real time    0.0028
     EDDAV:  cpu time    2.1891: real time    2.2516
       DOS:  cpu time    0.0005: real time    0.0005
    CHARGE:  cpu time    0.1785: real time    0.1820
    MIXING:  cpu time    0.0022: real time    0.0022
    --------------------------------------------
      LOOP:  cpu time    2.4012: real time    2.4809

 eigenvalue-minimisations  :  1280
 total energy-change (2. order) :-0.7579099E-05  (-0.1102789E-03)
 number of electron      23.0000034 magnetization 
 augmentation part        3.3655762 magnetization 

 Broyden mixing:
  rms(total) = 0.10270E-01    rms(broyden)= 0.10172E-01
  rms(prec ) = 0.10631E-01
  weight for this iteration     100.00

 eigenvalues of (default mixing * dielectric matrix)
  average eigenvalue GAMMA=   1.5291
  5.5254  2.6977  2.4528  2.4528  1.3939  0.3550  0.9997  0.9131  0.9131  0.8799
  0.6620  0.4590  0.1737

 Free energy of the ion-electron system (eV)
  ---------------------------------------------------
  alpha Z        PSCENC =        15.66301550
  Ewald energy   TEWEN  =      1626.54250004
  -Hartree energ DENC   =     -3125.98071055
  -exchange      EXHF   =         0.00000000
  -V(xc)+E(xc)   XCENC  =        56.06747074
  PAW double counting   =      1769.35166986    -1822.55054708
  entropy T*S    EENTRO =        -0.00102189
  eigenvalues    EBANDS =      -163.49388131
  atomic energy  EATOM  =      1632.79452054
  Solvation  Ediel_sol  =         0.00000000
  ---------------------------------------------------
  free energy    TOTEN  =       -11.60698415 eV

  energy without entropy =      -11.60596226  energy(sigma->0) =      -11.60647321


--------------------------------------------------------------------------------------------------------




----------------------------------------- Iteration    1(  19)  ---------------------------------------


    POTLOK:  cpu time    0.0272: real time    0.0372
    SETDIJ:  cpu time    0.0027: real time    0.0028
     EDDAV:  cpu time    2.2495: real time    2.3118
       DOS:  cpu time    0.0042: real time    0.0042
    CHARGE:  cpu time    0.2249: real time    0.2292
    MIXING:  cpu time    0.0024: real time    0.0024
    --------------------------------------------
      LOOP:  cpu time    2.5120: real time    2.5923

 eigenvalue-minimisations  :  1280
 total energy-change (2. order) :-0.9279809E-06  (-0.8460381E-04)
 number of electron      23.0000034 magnetization 
 augmentation part        3.3655823 magnetization 

 Broyden mixing:
  rms(total) = 0.94367E-02    rms(broyden)= 0.93506E-02
  rms(prec ) = 0.97711E-02
  weight for this iteration     100.00

 eigenvalues of (default mixing * dielectric matrix)
  average eigenvalue GAMMA=   1.5487
  6.1546  2.8219  2.3037  2.3037  1.7341  1.2300  0.9880  0.9880  0.8855  0.3550
  0.7126  0.5936  0.4373  0.1737

 Free energy of the ion-electron system (eV)
  ---------------------------------------------------
  alpha Z        PSCENC =        15.66301550
  Ewald energy   TEWEN  =      1626.54250004
  -Hartree energ DENC   =     -3126.04248190
  -exchange      EXHF   =         0.00000000
  -V(xc)+E(xc)   XCENC  =        56.06782643
  PAW double counting   =      1769.34905181    -1822.54747914
  entropy T*S    EENTRO =        -0.00102694
  eigenvalues    EBANDS =      -163.43291142
  atomic energy  EATOM  =      1632.79452054
  Solvation  Ediel_sol  =         0.00000000
  ---------------------------------------------------
  free energy    TOTEN  =       -11.60698508 eV

  energy without entropy =      -11.60595814  energy(sigma->0) =      -11.60647161


--------------------------------------------------------------------------------------------------------




----------------------------------------- Iteration    1(  20)  ---------------------------------------


    POTLOK:  cpu time    0.0269: real time    0.0319
    SETDIJ:  cpu time    0.0024: real time    0.0025
     EDDAV:  cpu time    2.3555: real time    2.4149
       DOS:  cpu time    0.0005: real time    0.0005
    CHARGE:  cpu time    0.1762: real time    0.1829
    MIXING:  cpu time    0.0024: real time    0.0024
    --------------------------------------------
      LOOP:  cpu time    2.5650: real time    2.6393

 eigenvalue-minimisations  :  1304
 total energy-change (2. order) : 0.8919461E-05  (-0.6928609E-04)
 number of electron      23.0000034 magnetization 
 augmentation part        3.3655394 magnetization 

 Broyden mixing:
  rms(total) = 0.78289E-02    rms(broyden)= 0.77490E-02
  rms(prec ) = 0.80966E-02
  weight for this iteration     100.00

 eigenvalues of (default mixing * dielectric matrix)
  average eigenvalue GAMMA=   1.6537
  7.2762  2.8739  2.4919  2.4919  2.2742  1.3569  1.0844  0.9703  0.9703  0.8661
  0.6862  0.3550  0.1737  0.5218  0.4135

 Free energy of the ion-electron system (eV)
  ---------------------------------------------------
  alpha Z        PSCENC =        15.66301550
  Ewald energy   TEWEN  =      1626.54250004
  -Hartree energ DENC   =     -3126.06551766
  -exchange      EXHF   =         0.00000000
  -V(xc)+E(xc)   XCENC  =        56.06781316
  PAW double counting   =      1769.37552322    -1822.57397481
  entropy T*S    EENTRO =        -0.00103334
  eigenvalues    EBANDS =      -163.40982281
  atomic energy  EATOM  =      1632.79452054
  Solvation  Ediel_sol  =         0.00000000
  ---------------------------------------------------
  free energy    TOTEN  =       -11.60697616 eV

  energy without entropy =      -11.60594282  energy(sigma->0) =      -11.60645949


--------------------------------------------------------------------------------------------------------




----------------------------------------- Iteration    1(  21)  ---------------------------------------


    POTLOK:  cpu time    0.0266: real time    0.0317
    SETDIJ:  cpu time    0.0024: real time    0.0025
     EDDAV:  cpu time    2.4000: real time    2.4598
       DOS:  cpu time    0.0005: real time    0.0005
    CHARGE:  cpu time    0.1805: real time    0.1843
    MIXING:  cpu time    0.0023: real time    0.0024
    --------------------------------------------
      LOOP:  cpu time    2.6133: real time    2.6855

 eigenvalue-minimisations  :  1296
 total energy-change (2. order) : 0.7408781E-05  (-0.5057946E-04)
 number of electron      23.0000034 magnetization 
 augmentation part        3.3655493 magnetization 

 Broyden mixing:
  rms(total) = 0.72937E-02    rms(broyden)= 0.72277E-02
  rms(prec ) = 0.75522E-02
  weight for this iteration     100.00

 eigenvalues of (default mixing * dielectric matrix)
  average eigenvalue GAMMA=   1.6752
  7.9737  3.2014  2.5888  2.5888  2.3129  1.4112  1.0703  0.9800  0.9800  0.8728
  0.7731  0.3550  0.6365  0.1737  0.4865  0.3978

 Free energy of the ion-electron system (eV)
  ---------------------------------------------------
  alpha Z        PSCENC =        15.66301550
  Ewald energy   TEWEN  =      1626.54250004
  -Hartree energ DENC   =     -3126.07497122
  -exchange      EXHF   =         0.00000000
  -V(xc)+E(xc)   XCENC  =        56.06787402
  PAW double counting   =      1769.35251975    -1822.55089043
  entropy T*S    EENTRO =        -0.00103667
  eigenvalues    EBANDS =      -163.40050029
  atomic energy  EATOM  =      1632.79452054
  Solvation  Ediel_sol  =         0.00000000
  ---------------------------------------------------
  free energy    TOTEN  =       -11.60696875 eV

  energy without entropy =      -11.60593208  energy(sigma->0) =      -11.60645042


--------------------------------------------------------------------------------------------------------




----------------------------------------- Iteration    1(  22)  ---------------------------------------


    POTLOK:  cpu time    0.0282: real time    0.0312
    SETDIJ:  cpu time    0.0024: real time    0.0024
     EDDAV:  cpu time    2.2294: real time    2.3121
       DOS:  cpu time    0.0005: real time    0.0005
    CHARGE:  cpu time    0.1815: real time    0.2103
    MIXING:  cpu time    0.0026: real time    0.0030
    --------------------------------------------
      LOOP:  cpu time    2.4456: real time    2.5637

 eigenvalue-minimisations  :  1328
 total energy-change (2. order) : 0.8955680E-05  (-0.3977175E-04)
 number of electron      23.0000034 magnetization 
 augmentation part        3.3655254 magnetization 

 Broyden mixing:
  rms(total) = 0.58177E-02    rms(broyden)= 0.57554E-02
  rms(prec ) = 0.60136E-02
  weight for this iteration     100.00

 eigenvalues of (default mixing * dielectric matrix)
  average eigenvalue GAMMA=   1.7185
  8.4541  3.6896  2.5570  2.5570  2.4565  1.3410  1.2296  1.2296  1.1251  0.8739
  0.8241  0.8241  0.6571  0.3550  0.1737  0.4790  0.3880

 Free energy of the ion-electron system (eV)
  ---------------------------------------------------
  alpha Z        PSCENC =        15.66301550
  Ewald energy   TEWEN  =      1626.54250004
  -Hartree energ DENC   =     -3126.07635227
  -exchange      EXHF   =         0.00000000
  -V(xc)+E(xc)   XCENC  =        56.06777470
  PAW double counting   =      1769.35377858    -1822.55221212
  entropy T*S    EENTRO =        -0.00104122
  eigenvalues    EBANDS =      -163.39894355
  atomic energy  EATOM  =      1632.79452054
  Solvation  Ediel_sol  =         0.00000000
  ---------------------------------------------------
  free energy    TOTEN  =       -11.60695979 eV

  energy without entropy =      -11.60591858  energy(sigma->0) =      -11.60643919


--------------------------------------------------------------------------------------------------------




----------------------------------------- Iteration    1(  23)  ---------------------------------------


    POTLOK:  cpu time    0.0360: real time    0.0397
    SETDIJ:  cpu time    0.0024: real time    0.0024
     EDDAV:  cpu time    2.3334: real time    2.4564
       DOS:  cpu time    0.0005: real time    0.0005
    CHARGE:  cpu time    0.1844: real time    0.1924
    MIXING:  cpu time    0.0029: real time    0.0029
    --------------------------------------------
      LOOP:  cpu time    2.5606: real time    2.6987

 eigenvalue-minimisations  :  1304
 total energy-change (2. order) : 0.5569837E-05  (-0.2801245E-04)
 number of electron      23.0000034 magnetization 
 augmentation part        3.3655429 magnetization 

 Broyden mixing:
  rms(total) = 0.53603E-02    rms(broyden)= 0.53112E-02
  rms(prec ) = 0.55496E-02
  weight for this iteration     100.00

 eigenvalues of (default mixing * dielectric matrix)
  average eigenvalue GAMMA=   1.7706
  8.9512  4.6209  2.5406  2.5406  2.3218  1.6001  1.6001  1.1523  1.0411  1.0411
  0.8350  0.8350  0.7842  0.6321  0.3550  0.1737  0.4670  0.3789

 Free energy of the ion-electron system (eV)
  ---------------------------------------------------
  alpha Z        PSCENC =        15.66301550
  Ewald energy   TEWEN  =      1626.54250004
  -Hartree energ DENC   =     -3126.07714384
  -exchange      EXHF   =         0.00000000
  -V(xc)+E(xc)   XCENC  =        56.06778853
  PAW double counting   =      1769.34100957    -1822.53938771
  entropy T*S    EENTRO =        -0.00104343
  eigenvalues    EBANDS =      -163.39821343
  atomic energy  EATOM  =      1632.79452054
  Solvation  Ediel_sol  =         0.00000000
  ---------------------------------------------------
  free energy    TOTEN  =       -11.60695422 eV

  energy without entropy =      -11.60591080  energy(sigma->0) =      -11.60643251


--------------------------------------------------------------------------------------------------------




----------------------------------------- Iteration    1(  24)  ---------------------------------------


    POTLOK:  cpu time    0.0317: real time    0.0352
    SETDIJ:  cpu time    0.0026: real time    0.0029
     EDDAV:  cpu time    2.2904: real time    2.4275
       DOS:  cpu time    0.0005: real time    0.0005
    CHARGE:  cpu time    0.1792: real time    0.1873
    MIXING:  cpu time    0.0028: real time    0.0028
    --------------------------------------------
      LOOP:  cpu time    2.5083: real time    2.6606

 eigenvalue-minimisations  :  1320
 total energy-change (2. order) : 0.5426195E-05  (-0.2130339E-04)
 number of electron      23.0000034 magnetization 
 augmentation part        3.3655290 magnetization 

 Broyden mixing:
  rms(total) = 0.42496E-02    rms(broyden)= 0.42037E-02
  rms(prec ) = 0.43923E-02
  weight for this iteration     100.00

 eigenvalues of (default mixing * dielectric matrix)
  average eigenvalue GAMMA=   1.7259
  8.6576  4.9657  2.4949  2.4949  2.4821  1.6353  1.6353  1.3077  1.0155  1.0155
  0.9224  0.8764  0.7432  0.6625  0.1737  0.5393  0.3550  0.4473  0.3679

 Free energy of the ion-electron system (eV)
  ---------------------------------------------------
  alpha Z        PSCENC =        15.66301550
  Ewald energy   TEWEN  =      1626.54250004
  -Hartree energ DENC   =     -3126.07637540
  -exchange      EXHF   =         0.00000000
  -V(xc)+E(xc)   XCENC  =        56.06770627
  PAW double counting   =      1769.34147945    -1822.53988884
  entropy T*S    EENTRO =        -0.00104596
  eigenvalues    EBANDS =      -163.39886041
  atomic energy  EATOM  =      1632.79452054
  Solvation  Ediel_sol  =         0.00000000
  ---------------------------------------------------
  free energy    TOTEN  =       -11.60694880 eV

  energy without entropy =      -11.60590284  energy(sigma->0) =      -11.60642582


--------------------------------------------------------------------------------------------------------




----------------------------------------- Iteration    1(  25)  ---------------------------------------


    POTLOK:  cpu time    0.0326: real time    0.0341
    SETDIJ:  cpu time    0.0026: real time    0.0026
     EDDAV:  cpu time    2.1942: real time    2.2806
       DOS:  cpu time    0.0006: real time    0.0006
    CHARGE:  cpu time    0.1827: real time    0.1866
    MIXING:  cpu time    0.0031: real time    0.0031
    --------------------------------------------
      LOOP:  cpu time    2.4169: real time    2.5122

 eigenvalue-minimisations  :  1272
 total energy-change (2. order) : 0.3160442E-05  (-0.1483599E-04)
 number of electron      23.0000034 magnetization 
 augmentation part        3.3655417 magnetization 

 Broyden mixing:
  rms(total) = 0.38527E-02    rms(broyden)= 0.38168E-02
  rms(prec ) = 0.39881E-02
  weight for this iteration     100.00

 eigenvalues of (default mixing * dielectric matrix)
  average eigenvalue GAMMA=   1.6808
  8.7295  5.0385  2.5052  2.5052  2.4032  1.5717  1.4324  1.4324  1.0751  1.0751
  0.9069  0.8593  0.6795  0.6795  0.7544  0.6127  0.3550  0.1737  0.4562  0.3708

 Free energy of the ion-electron system (eV)
  ---------------------------------------------------
  alpha Z        PSCENC =        15.66301550
  Ewald energy   TEWEN  =      1626.54250004
  -Hartree energ DENC   =     -3126.07638066
  -exchange      EXHF   =         0.00000000
  -V(xc)+E(xc)   XCENC  =        56.06771774
  PAW double counting   =      1769.33643682    -1822.53481850
  entropy T*S    EENTRO =        -0.00104731
  eigenvalues    EBANDS =      -163.39888982
  atomic energy  EATOM  =      1632.79452054
  Solvation  Ediel_sol  =         0.00000000
  ---------------------------------------------------
  free energy    TOTEN  =       -11.60694564 eV

  energy without entropy =      -11.60589833  energy(sigma->0) =      -11.60642199


--------------------------------------------------------------------------------------------------------




----------------------------------------- Iteration    1(  26)  ---------------------------------------


    POTLOK:  cpu time    0.0273: real time    0.0300
    SETDIJ:  cpu time    0.0024: real time    0.0025
     EDDAV:  cpu time    2.2047: real time    2.3274
       DOS:  cpu time    0.0005: real time    0.0005
    CHARGE:  cpu time    0.1825: real time    0.1869
    MIXING:  cpu time    0.0032: real time    0.0033
    --------------------------------------------
      LOOP:  cpu time    2.4216: real time    2.5551

 eigenvalue-minimisations  :  1296
 total energy-change (2. order) : 0.2909561E-05  (-0.1098069E-04)
 number of electron      23.0000034 magnetization 
 augmentation part        3.3655319 magnetization 

 Broyden mixing:
  rms(total) = 0.30507E-02    rms(broyden)= 0.30177E-02
  rms(prec ) = 0.31530E-02
  weight for this iteration     100.00

 eigenvalues of (default mixing * dielectric matrix)
  average eigenvalue GAMMA=   1.6965
  8.7900  5.0976  2.4592  2.4592  2.3673  1.8696  1.8696  1.5751  1.1897  1.0238
  1.0238  0.8716  0.8716  0.8440  0.8226  0.6501  0.1737  0.3550  0.5091  0.4385
  0.3654

 Free energy of the ion-electron system (eV)
  ---------------------------------------------------
  alpha Z        PSCENC =        15.66301550
  Ewald energy   TEWEN  =      1626.54250004
  -Hartree energ DENC   =     -3126.07583922
  -exchange      EXHF   =         0.00000000
  -V(xc)+E(xc)   XCENC  =        56.06766188
  PAW double counting   =      1769.33717243    -1822.53557070
  entropy T*S    EENTRO =        -0.00104861
  eigenvalues    EBANDS =      -163.39935459
  atomic energy  EATOM  =      1632.79452054
  Solvation  Ediel_sol  =         0.00000000
  ---------------------------------------------------
  free energy    TOTEN  =       -11.60694273 eV

  energy without entropy =      -11.60589412  energy(sigma->0) =      -11.60641842


--------------------------------------------------------------------------------------------------------




----------------------------------------- Iteration    1(  27)  ---------------------------------------


    POTLOK:  cpu time    0.0275: real time    0.0308
    SETDIJ:  cpu time    0.0023: real time    0.0025
     EDDAV:  cpu time    2.1673: real time    2.2907
       DOS:  cpu time    0.0005: real time    0.0005
    --------------------------------------------
      LOOP:  cpu time    2.1986: real time    2.3286

 eigenvalue-minimisations  :  1272
 total energy-change (2. order) : 0.1606713E-05  (-0.7612935E-05)
 number of electron      23.0000034 magnetization 
 augmentation part        3.3655319 magnetization 

 Free energy of the ion-electron system (eV)
  ---------------------------------------------------
  alpha Z        PSCENC =        15.66301550
  Ewald energy   TEWEN  =      1626.54250004
  -Hartree energ DENC   =     -3126.07585953
  -exchange      EXHF   =         0.00000000
  -V(xc)+E(xc)   XCENC  =        56.06767470
  PAW double counting   =      1769.33503772    -1822.53342176
  entropy T*S    EENTRO =        -0.00104938
[...]
     11      -2.2927      2.00000
     12      -1.4801      2.00000
     13      -1.3272      0.00000
     14       4.3835      0.00000
     15       4.4257      0.00000
     16       4.8837      0.00000

 k-point    18 :       0.2727    0.1818    0.0000
  band No.  band energies     occupation 
      1     -18.0181      2.00000
      2     -17.6136      2.00000
      3      -8.0575      2.00000
      4      -7.6316      2.00000
      5      -6.7370      2.00000
      6      -6.3007      2.00000
      7      -6.0786      2.00000
      8      -5.3499      2.00000
      9      -2.6509      2.00000
     10      -2.4120      2.00000
     11      -2.3374      2.00000
     12      -1.4708      2.00000
     13      -1.1999      0.00000
     14       4.3841      0.00000
     15       5.0526      0.00000
     16       5.4025      0.00000

 k-point    19 :       0.3636    0.1818    0.0000
  band No.  band energies     occupation 
      1     -17.8126      2.00000
      2     -17.6302      2.00000
      3      -8.3586      2.00000
      4      -7.6617      2.00000
      5      -6.8291      2.00000
      6      -6.2882      2.00000
      7      -5.9952      2.00000
      8      -5.6926      2.00000
      9      -2.6912      2.00000
     10      -2.4155      2.00000
     11      -2.3365      2.00000
     12      -1.3895      0.00931
     13      -1.1727      0.00000
     14       4.1875      0.00000
     15       5.4355      0.00000
     16       6.1832      0.00000

 k-point    20 :       0.4545    0.1818    0.0000
  band No.  band energies     occupation 
      1     -17.8131      2.00000
      2     -17.6302      2.00000
      3      -8.3575      2.00000
      4      -7.6614      2.00000
      5      -6.8301      2.00000
      6      -6.2875      2.00000
      7      -5.9985      2.00000
      8      -5.6897      2.00000
      9      -2.6911      2.00000
     10      -2.4146      2.00000
     11      -2.3376      2.00000
     12      -1.3883      0.00575
     13      -1.1744      0.00000
     14       4.1886      0.00000
     15       5.4370      0.00000
     16       6.1799      0.00000

 k-point    21 :      -0.4545    0.1818    0.0000
  band No.  band energies     occupation 
      1     -18.0190      2.00000
      2     -17.6139      2.00000
      3      -8.0548      2.00000
      4      -7.6311      2.00000
      5      -6.7383      2.00000
      6      -6.3033      2.00000
      7      -6.0781      2.00000
      8      -5.3477      2.00000
      9      -2.6506      2.00000
     10      -2.4110      2.00000
     11      -2.3389      2.00000
     12      -1.4692      2.00000
     13      -1.2029      0.00000
     14       4.3868      0.00000
     15       5.0531      0.00000
     16       5.4001      0.00000

 k-point    22 :      -0.3636    0.1818    0.0000
  band No.  band energies     occupation 
      1     -18.2834      2.00000
      2     -17.6519      2.00000
      3      -7.6890      2.00000
      4      -7.4933      2.00000
      5      -6.5806      2.00000
      6      -6.4388      2.00000
      7      -5.7725      2.00000
      8      -5.0086      2.00000
      9      -2.6592      2.00000
     10      -2.4250      2.00000
     11      -2.2907      2.00000
     12      -1.4787      2.00000
     13      -1.3297      0.00000
     14       4.3825      0.00000
     15       4.4248      0.00000
     16       4.8868      0.00000

 k-point    23 :      -0.2727    0.1818    0.0000
  band No.  band energies     occupation 
      1     -18.5307      2.00000
      2     -17.7137      2.00000
      3      -7.6057      2.00000
      4      -7.2619      2.00000
      5      -6.3573      2.00000
      6      -6.2764      2.00000
      7      -5.3514      2.00000
      8      -4.7990      2.00000
      9      -2.7471      2.00000
     10      -2.4940      2.00000
     11      -2.2260      2.00000
     12      -1.4892      2.00000
     13      -1.3112      0.00000
     14       3.6878      0.00000
     15       3.9706      0.00000
     16       4.7992      0.00000

 k-point    24 :      -0.1818    0.1818    0.0000
  band No.  band energies     occupation 
      1     -18.7026      2.00000
      2     -17.7658      2.00000
      3      -7.6944      2.00000
      4      -7.0106      2.00000
      5      -6.3263      2.00000
      6      -5.8179      2.00000
      7      -5.0058      2.00000
      8      -4.7469      2.00000
      9      -2.8300      2.00000
     10      -2.5513      2.00000
     11      -2.2466      2.00000
     12      -1.4901      2.00000
     13      -1.1772      0.00000
     14       3.2150      0.00000
     15       3.6637      0.00000
     16       4.3541      0.00000

 k-point    25 :       0.2727    0.2727    0.0000
  band No.  band energies     occupation 
      1     -17.8173      2.00000
      2     -17.6096      2.00000
      3      -8.1047      2.00000
      4      -7.6654      2.00000
      5      -7.1764      2.00000
      6      -6.3110      2.00000
      7      -6.0830      2.00000
      8      -5.6431      2.00000
      9      -2.6191      2.00000
     10      -2.4013      2.00000
     11      -2.3176      2.00000
     12      -1.4767      2.00000
     13      -1.2210      0.00000
     14       4.6066      0.00000
     15       5.4721      0.00000
     16       6.4043      0.00000

 k-point    26 :       0.3636    0.2727    0.0000
  band No.  band energies     occupation 
      1     -17.7080      2.00000
      2     -17.6406      2.00000
      3      -8.0984      2.00000
      4      -7.6149      2.00000
      5      -7.4264      2.00000
      6      -6.3919      2.00000
      7      -5.9038      2.00000
      8      -5.8554      2.00000
      9      -2.6415      2.00000
     10      -2.3495      2.00000
     11      -2.3190      2.00000
     12      -1.4222      1.95845
     13      -1.2960      0.00000
     14       4.6029      0.00000
     15       6.1570      0.00000
     16       6.1853      0.00000

 k-point    27 :       0.4545    0.2727    0.0000
  band No.  band energies     occupation 
      1     -17.8181      2.00000
      2     -17.6100      2.00000
      3      -8.1017      2.00000
      4      -7.6651      2.00000
      5      -7.1784      2.00000
      6      -6.3105      2.00000
      7      -6.0858      2.00000
      8      -5.6402      2.00000
      9      -2.6190      2.00000
     10      -2.3996      2.00000
     11      -2.3194      2.00000
     12      -1.4751      2.00000
     13      -1.2237      0.00000
     14       4.6101      0.00000
     15       5.4722      0.00000
     16       6.4018      0.00000

 k-point    28 :      -0.4545    0.2727    0.0000
  band No.  band energies     occupation 
      1     -18.0194      2.00000
      2     -17.6144      2.00000
      3      -8.0556      2.00000
      4      -7.6309      2.00000
      5      -6.7371      2.00000
      6      -6.3033      2.00000
      7      -6.0773      2.00000
      8      -5.3475      2.00000
      9      -2.6517      2.00000
     10      -2.4105      2.00000
     11      -2.3381      2.00000
     12      -1.4693      2.00000
     13      -1.2029      0.00000
     14       4.3877      0.00000
     15       5.0535      0.00000
     16       5.4011      0.00000

 k-point    29 :      -0.3636    0.2727    0.0000
  band No.  band energies     occupation 
      1     -18.2416      2.00000
      2     -17.6488      2.00000
      3      -7.8987      2.00000
      4      -7.5278      2.00000
      5      -6.5190      2.00000
      6      -6.3450      2.00000
      7      -5.6894      2.00000
      8      -5.0927      2.00000
      9      -2.7933      2.00000
     10      -2.4204      2.00000
     11      -2.2657      2.00000
     12      -1.4076      0.97101
     13      -1.2538      0.00000
     14       3.9823      0.00000
     15       4.5728      0.00000
     16       4.8134      0.00000

 k-point    30 :      -0.2727    0.2727    0.0000
  band No.  band energies     occupation 
      1     -18.4268      2.00000
      2     -17.6885      2.00000
      3      -7.6834      2.00000
      4      -7.4253      2.00000
      5      -6.4618      2.00000
      6      -6.2835      2.00000
      7      -5.3652      2.00000
      8      -4.9113      2.00000
      9      -2.8721      2.00000
     10      -2.4311      2.00000
     11      -2.2223      2.00000
     12      -1.4890      2.00000
     13      -1.2088      0.00000
     14       3.7992      0.00000
     15       4.0833      0.00000
     16       4.6130      0.00000

 k-point    31 :       0.3636    0.3636    0.0000
  band No.  band energies     occupation 
      1     -17.7083      2.00000
      2     -17.6411      2.00000
      3      -8.0971      2.00000
      4      -7.6152      2.00000
      5      -7.4268      2.00000
      6      -6.3921      2.00000
      7      -5.9051      2.00000
      8      -5.8534      2.00000
      9      -2.6416      2.00000
     10      -2.3480      2.00000
     11      -2.3202      2.00000
     12      -1.4213      1.94303
     13      -1.2976      0.00000
     14       4.6051      0.00000
     15       6.1562      0.00000
     16       6.1860      0.00000

 k-point    32 :       0.4545    0.3636    0.0000
  band No.  band energies     occupation 
      1     -17.8135      2.00000
      2     -17.6314      2.00000
      3      -8.3571      2.00000
      4      -7.6619      2.00000
      5      -6.8283      2.00000
      6      -6.2885      2.00000
      7      -5.9961      2.00000
      8      -5.6900      2.00000
      9      -2.6920      2.00000
     10      -2.4137      2.00000
     11      -2.3372      2.00000
     12      -1.3883      0.00561
     13      -1.1753      0.00000
     14       4.1917      0.00000
     15       5.4374      0.00000
     16       6.1850      0.00000

 k-point    33 :      -0.4545    0.3636    0.0000
  band No.  band energies     occupation 
      1     -17.9682      2.00000
      2     -17.6332      2.00000
      3      -8.4020      2.00000
      4      -7.6713      2.00000
      5      -6.3727      2.00000
      6      -6.2274      2.00000
      7      -5.9398      2.00000
      8      -5.4721      2.00000
      9      -2.8398      2.00000
     10      -2.4383      2.00000
     11      -2.3171      2.00000
     12      -1.2688      0.00000
     13      -1.1438      0.00000
     14       3.7157      0.00000
     15       4.8153      0.00000
     16       5.5828      0.00000

 k-point    34 :      -0.3636    0.3636    0.0000
  band No.  band energies     occupation 
      1     -18.1261      2.00000
      2     -17.6409      2.00000
      3      -8.2224      2.00000
      4      -7.6099      2.00000
      5      -6.4207      2.00000
      6      -6.2341      2.00000
      7      -5.6517      2.00000
      8      -5.2804      2.00000
      9      -2.9256      2.00000
     10      -2.4285      2.00000
     11      -2.2720      2.00000
     12      -1.2757      0.00000
     13      -1.1616      0.00000
     14       3.5895      0.00000
     15       4.5830      0.00000
     16       5.0866      0.00000

 k-point    35 :       0.4545    0.4545    0.0000
  band No.  band energies     occupation 
      1     -17.8224      2.00000
      2     -17.6664      2.00000
      3      -8.6055      2.00000
      4      -7.7226      2.00000
      5      -6.2540      2.00000
      6      -6.2252      2.00000
      7      -5.8726      2.00000
      8      -5.7648      2.00000
      9      -2.8637      2.00000
     10      -2.4470      2.00000
     11      -2.3463      2.00000
     12      -1.2052      0.00000
     13      -1.0983      0.00000
     14       3.6166      0.00000
     15       4.7186      0.00000
     16       6.1322      0.00000

 k-point    36 :      -0.4545    0.4545    0.0000
  band No.  band energies     occupation 
      1     -17.8867      2.00000
      2     -17.6604      2.00000
      3      -8.6224      2.00000
      4      -7.7315      2.00000
      5      -6.1897      2.00000
      6      -6.1145      2.00000
      7      -5.8214      2.00000
      8      -5.6505      2.00000
      9      -2.9640      2.00000
     10      -2.4553      2.00000
     11      -2.3324      2.00000
     12      -1.1127      0.00000
     13      -1.0975      0.00000
     14       3.4015      0.00000
     15       4.4225      0.00000
     16       5.8552      0.00000


--------------------------------------------------------------------------------------------------------


 soft charge-density along one line, spin component           1
         0         1         2         3         4         5         6         7         8         9
 total charge-density along one line
 
 pseudopotential strength for first ion, spin component:           1
 49.518  51.969   0.000   0.032  -0.000   0.000   0.040  -0.000
 51.969  54.544   0.000   0.034  -0.000   0.000   0.042  -0.000
  0.000   0.000   9.331   0.000   0.000  11.566   0.000   0.000
  0.032   0.034   0.000   9.330  -0.000   0.000  11.564  -0.000
 -0.000  -0.000   0.000  -0.000   9.331   0.000  -0.000  11.566
  0.000   0.000  11.566   0.000   0.000  14.351   0.000   0.000
  0.040   0.042   0.000  11.564  -0.000   0.000  14.348  -0.000
 -0.000  -0.000   0.000  -0.000  11.566   0.000  -0.000  14.351
 total augmentation occupancy for first ion, spin component:           1
  6.862  -5.171  -0.006  -2.609   0.010   0.003   0.888  -0.005
 -5.171   5.396   0.006   2.517  -0.010  -0.003  -0.950   0.005
 -0.006   0.006   3.487   0.001   0.001  -0.951  -0.000  -0.001
 -2.609   2.517   0.001   3.256  -0.002  -0.000  -0.811   0.001
  0.010  -0.010   0.001  -0.002   3.485  -0.001   0.001  -0.950
  0.003  -0.003  -0.951  -0.000  -0.001   0.370   0.000   0.000
  0.888  -0.950  -0.000  -0.811   0.001   0.000   0.338  -0.000
 -0.005   0.005  -0.001   0.001  -0.950   0.000  -0.000   0.370


------------------------ aborting loop because EDIFF is reached ----------------------------------------


    CHARGE:  cpu time    0.1734: real time    0.2011
    FORLOC:  cpu time    0.0027: real time    0.0027
    FORNL :  cpu time    0.2064: real time    0.2097
    STRESS:  cpu time    0.9716: real time    1.0023
    FORCOR:  cpu time    0.0346: real time    0.0367
    FORHAR:  cpu time    0.0079: real time    0.0083
    MIXING:  cpu time    0.0013: real time    0.0015
    OFIELD:  cpu time    0.0000: real time    0.0001

  FORCE on cell =-STRESS in cart. coord.  units (eV):
  Direction    XX          YY          ZZ          XY          YZ          ZX
  --------------------------------------------------------------------------------------
  Alpha Z    15.66302    15.66302    15.66302
  Ewald    3323.54909  3323.90605 -4297.56221     0.30911   -10.30295    17.84527
  Hartree  3663.11086  3663.25873 -3479.43527     0.12807    -9.79206    16.96033
  E(xc)     -97.80490   -97.80334   -98.12714     0.00136     0.00096    -0.00166
  Local   -7483.85235 -7484.29571  7274.30415    -0.38394    20.14437   -34.89109
  n-local   154.36072   154.29464   154.27484     0.02691     0.44185     0.23905
  augment   117.96118   117.93243   117.86681    -0.02490    -0.02494     0.04325
  Kinetic   305.39834   308.55618   312.94907    -0.95232     1.93912     1.18140
  Fock        0.00000     0.00000     0.00000     0.00000     0.00000     0.00000
  -------------------------------------------------------------------------------------
  Total      -0.05501    -0.04705    -0.06674     0.00689     0.00320    -0.00555
  in kB      -0.55877    -0.47794    -0.67797     0.06999     0.03255    -0.05638
  external pressure =       -0.57 kB  Pullay stress =        0.00 kB


 VOLUME and BASIS-vectors are now :
 -----------------------------------------------------------------------------
  energy-cutoff  :      410.00
  volume of cell :      157.72
      direct lattice vectors                 reciprocal lattice vectors
     3.396137740 -0.001084394  0.008127520     0.294507430  0.170158235 -0.000403268
    -1.699007983  2.940599360 -0.008127520     0.000107639  0.340130033  0.000403268
     0.032455948 -0.018738450 15.795978059    -0.000151478  0.000087456  0.063307669

  length of vectors
     3.396147638  3.396147638 15.796022517     0.340130289  0.340130289  0.063307911


 FORCES acting on ions
    electron-ion (+dipol)            ewald-force                    non-local-force                 convergence-correction
 -----------------------------------------------------------------------------------------------
   -.176E+01 0.102E+01 0.679E+03   0.179E+01 -.103E+01 -.683E+03   -.217E-01 0.125E-01 0.399E+01   -.390E-02 0.225E-02 -.163E-01
   0.176E+01 -.102E+01 -.679E+03   -.179E+01 0.103E+01 0.683E+03   0.217E-01 -.125E-01 -.399E+01   0.390E-02 -.225E-02 0.163E-01
   0.143E-04 -.864E-05 -.329E-03   0.983E-05 -.802E-05 0.155E-05   -.148E-19 -.106E-20 -.217E-18   0.384E-07 -.231E-07 0.513E-05
 -----------------------------------------------------------------------------------------------
   -.862E-04 0.740E-04 -.602E-03   0.137E-14 0.609E-14 -.114E-12   -.148E-19 0.173E-17 -.444E-15   0.234E-07 -.145E-07 0.149E-04
 
 
 POSITION                                       TOTAL-FORCE (eV/Angst)
 -----------------------------------------------------------------------------------
      1.70311      0.97639      0.16869        -0.001323      0.000764     -0.003707
     -0.00012      1.95975      2.68059         0.001323     -0.000764      0.003707
      0.00293     -0.00169      1.42464        -0.000000      0.000000      0.000000
 -----------------------------------------------------------------------------------
    total drift:                               -0.000086      0.000074     -0.000587


--------------------------------------------------------------------------------------------------------



  FREE ENERGIE OF THE ION-ELECTRON SYSTEM (eV)
  ---------------------------------------------------
  free  energy   TOTEN  =       -11.76474405 eV

  energy  without entropy=      -11.76395669  energy(sigma->0) =      -11.76435037
 
 d Force = 0.1124921E-03[ 0.259E-04, 0.199E-03]  d Energy = 0.1513231E-03-0.388E-04
 d Force = 0.4643839E+01[ 0.464E+01, 0.465E+01]  d Ewald  = 0.1389959E+02-0.926E+01


--------------------------------------------------------------------------------------------------------


    POTLOK:  cpu time    0.0346: real time    0.0390


--------------------------------------------------------------------------------------------------------


 Quasi-Newton relaxation of ions (Broydens 2nd method)
  g(Force)  = 0.155E-05   g(Stress)= 0.600E-05

 retain information from N=  1 steps
 eigenvalues of (default step * inverse Hessian matrix)
  average eigenvalue of G=   1.9903
 eigenvalue spectrum of G is  1.9903


--------------------------------------------------------------------------------------------------------


  
 reached required accuracy - stopping structural energy minimisation
 writing wavefunctions
     LOOP+:  cpu time   17.0176: real time   18.2541
    4ORBIT:  cpu time    0.0000: real time    0.0000

 total amount of memory used by VASP on root node    74994. kBytes
========================================================================

   base      :      30000. kBytes
   nonl-proj :      31248. kBytes
   fftplans  :       1873. kBytes
   grid      :       4833. kBytes
   one-center:         46. kBytes
   wavefun   :       6994. kBytes
 
  
  
 General timing and accounting informations for this job:
 ========================================================
  
                  Total CPU time used (sec):      367.989
                            User time (sec):      364.164
                          System time (sec):        3.825
                         Elapsed time (sec):      386.536
  
                   Maximum memory used (kb):      109448.
                   Average memory used (kb):           0.
  
                          Minor page faults:        59236
                          Major page faults:            0
                 Voluntary context switches:         6140
